TITLE = "2D mesh with final value"
VARIABLES = "X" "Y" "scalar"
ZONE I=97, J=97, F=POINT
-0.0184211 -0.0184211 200
0.0184211 -0.0184211 100
0.0552632 -0.0184211 100
0.0921053 -0.0184211 100
0.128947 -0.0184211 100
0.165789 -0.0184211 100
0.202632 -0.0184211 100
0.239474 -0.0184211 100
0.276316 -0.0184211 100
0.313158 -0.0184211 100
0.35 -0.0184211 100
0.386842 -0.0184211 100
0.423684 -0.0184211 100
0.460526 -0.0184211 100
0.497368 -0.0184211 100
0.534211 -0.0184211 100
0.571053 -0.0184211 100
0.607895 -0.0184211 100
0.644737 -0.0184211 100
0.681579 -0.0184211 100
0.718421 -0.0184211 100
0.755263 -0.0184211 100
0.792105 -0.0184211 100
0.828947 -0.0184211 100
0.865789 -0.0184211 100
0.902632 -0.0184211 100
0.939474 -0.0184211 100
0.976316 -0.0184211 100
1.01316 -0.0184211 100
1.05 -0.0184211 100
1.08684 -0.0184211 100
1.12368 -0.0184211 100
1.16053 -0.0184211 100
1.19737 -0.0184211 100
1.23421 -0.0184211 100
1.27105 -0.0184211 100
1.30789 -0.0184211 100
1.34474 -0.0184211 100
1.38158 -0.0184211 100
1.41842 -0.0184211 100
1.45526 -0.0184211 100
1.49211 -0.0184211 100
1.52895 -0.0184211 100
1.56579 -0.0184211 100
1.60263 -0.0184211 100
1.63947 -0.0184211 100
1.67632 -0.0184211 100
1.71316 -0.0184211 100
1.75 -0.0184211 100
1.78684 -0.0184211 100
1.82368 -0.0184211 100
1.86053 -0.0184211 100
1.89737 -0.0184211 100
1.93421 -0.0184211 100
1.97105 -0.0184211 100
2.00789 -0.0184211 100
2.04474 -0.0184211 100
2.08158 -0.0184211 100
2.11842 -0.0184211 100
2.15526 -0.0184211 100
2.19211 -0.0184211 100
2.22895 -0.0184211 100
2.26579 -0.0184211 100
2.30263 -0.0184211 100
2.33947 -0.0184211 100
2.37632 -0.0184211 100
2.41316 -0.0184211 100
2.45 -0.0184211 100
2.48684 -0.0184211 100
2.52368 -0.0184211 100
2.56053 -0.0184211 100
2.59737 -0.0184211 100
2.63421 -0.0184211 100
2.67105 -0.0184211 100
2.70789 -0.0184211 100
2.74474 -0.0184211 100
2.78158 -0.0184211 100
2.81842 -0.0184211 100
2.85526 -0.0184211 100
2.89211 -0.0184211 100
2.92895 -0.0184211 100
2.96579 -0.0184211 100
3.00263 -0.0184211 100
3.03947 -0.0184211 100
3.07632 -0.0184211 100
3.11316 -0.0184211 100
3.15 -0.0184211 100
3.18684 -0.0184211 100
3.22368 -0.0184211 100
3.26053 -0.0184211 100
3.29737 -0.0184211 100
3.33421 -0.0184211 100
3.37105 -0.0184211 100
3.40789 -0.0184211 100
3.44474 -0.0184211 100
3.48158 -0.0184211 100
3.51842 -0.0184211 200
-0.0184211 0.0184211 300
0.0184211 0.0184211 193.039
0.0552632 0.0184211 152.382
0.0921053 0.0184211 134.218
0.128947 0.0184211 124.795
0.165789 0.0184211 119.266
0.202632 0.0184211 115.697
0.239474 0.0184211 113.224
0.276316 0.0184211 111.416
0.313158 0.0184211 110.04
0.35 0.0184211 108.959
0.386842 0.0184211 108.088
0.423684 0.0184211 107.372
0.460526 0.0184211 106.773
0.497368 0.0184211 106.265
0.534211 0.0184211 105.83
0.571053 0.0184211 105.452
0.607895 0.0184211 105.121
0.644737 0.0184211 104.83
0.681579 0.0184211 104.572
0.718421 0.0184211 104.341
0.755263 0.0184211 104.135
0.792105 0.0184211 103.949
0.828947 0.0184211 103.781
0.865789 0.0184211 103.629
0.902632 0.0184211 103.491
0.939474 0.0184211 103.365
0.976316 0.0184211 103.251
1.01316 0.0184211 103.146
1.05 0.0184211 103.05
1.08684 0.0184211 102.962
1.12368 0.0184211 102.882
1.16053 0.0184211 102.809
1.19737 0.0184211 102.743
1.23421 0.0184211 102.682
1.27105 0.0184211 102.627
1.30789 0.0184211 102.577
1.34474 0.0184211 102.532
1.38158 0.0184211 102.492
1.41842 0.0184211 102.456
1.45526 0.0184211 102.424
1.49211 0.0184211 102.396
1.52895 0.0184211 102.373
1.56579 0.0184211 102.353
1.60263 0.0184211 102.337
1.63947 0.0184211 102.324
1.67632 0.0184211 102.316
1.71316 0.0184211 102.31
1.75 0.0184211 102.309
1.78684 0.0184211 102.31
1.82368 0.0184211 102.316
1.86053 0.0184211 102.324
1.89737 0.0184211 102.337
1.93421 0.0184211 102.353
1.97105 0.0184211 102.373
2.00789 0.0184211 102.396
2.04474 0.0184211 102.424
2.08158 0.0184211 102.456
2.11842 0.0184211 102.492
2.15526 0.0184211 102.532
2.19211 0.0184211 102.577
2.22895 0.0184211 102.627
2.26579 0.0184211 102.682
2.30263 0.0184211 102.743
2.33947 0.0184211 102.809
2.37632 0.0184211 102.882
2.41316 0.0184211 102.962
2.45 0.0184211 103.05
2.48684 0.0184211 103.146
2.52368 0.0184211 103.251
2.56053 0.0184211 103.365
2.59737 0.0184211 103.491
2.63421 0.0184211 103.629
2.67105 0.0184211 103.781
2.70789 0.0184211 103.949
2.74474 0.0184211 104.135
2.78158 0.0184211 104.341
2.81842 0.0184211 104.572
2.85526 0.0184211 104.83
2.89211 0.0184211 105.121
2.92895 0.0184211 105.452
2.96579 0.0184211 105.83
3.00263 0.0184211 106.265
3.03947 0.0184211 106.773
3.07632 0.0184211 107.372
3.11316 0.0184211 108.088
3.15 0.0184211 108.959
3.18684 0.0184211 110.04
3.22368 0.0184211 111.416
3.26053 0.0184211 113.224
3.29737 0.0184211 115.697
3.33421 0.0184211 119.266
3.37105 0.0184211 124.795
3.40789 0.0184211 134.218
3.44474 0.0184211 152.382
3.48158 0.0184211 193.039
3.51842 0.0184211 300
-0.0184211 0.0552632 300
0.0184211 0.0552632 219.775
0.0552632 0.0552632 182.27
0.0921053 0.0552632 159.694
0.128947 0.0552632 145.698
0.165789 0.0552632 136.57
0.202632 0.0552632 130.298
0.239474 0.0552632 125.782
0.276316 0.0552632 122.401
0.313158 0.0552632 119.786
0.35 0.0552632 117.709
0.386842 0.0552632 116.022
0.423684 0.0552632 114.627
0.460526 0.0552632 113.456
0.497368 0.0552632 112.459
0.534211 0.0552632 111.601
0.571053 0.0552632 110.856
0.607895 0.0552632 110.203
0.644737 0.0552632 109.627
0.681579 0.0552632 109.115
0.718421 0.0552632 108.659
0.755263 0.0552632 108.249
0.792105 0.0552632 107.88
0.828947 0.0552632 107.547
0.865789 0.0552632 107.245
0.902632 0.0552632 106.97
0.939474 0.0552632 106.719
0.976316 0.0552632 106.491
1.01316 0.0552632 106.282
1.05 0.0552632 106.092
1.08684 0.0552632 105.917
1.12368 0.0552632 105.758
1.16053 0.0552632 105.612
1.19737 0.0552632 105.48
1.23421 0.0552632 105.359
1.27105 0.0552632 105.249
1.30789 0.0552632 105.149
1.34474 0.0552632 105.059
1.38158 0.0552632 104.979
1.41842 0.0552632 104.907
1.45526 0.0552632 104.844
1.49211 0.0552632 104.789
1.52895 0.0552632 104.742
1.56579 0.0552632 104.702
1.60263 0.0552632 104.67
1.63947 0.0552632 104.645
1.67632 0.0552632 104.628
1.71316 0.0552632 104.617
1.75 0.0552632 104.614
1.78684 0.0552632 104.617
1.82368 0.0552632 104.628
1.86053 0.0552632 104.645
1.89737 0.0552632 104.67
1.93421 0.0552632 104.702
1.97105 0.0552632 104.742
2.00789 0.0552632 104.789
2.04474 0.0552632 104.844
2.08158 0.0552632 104.907
2.11842 0.0552632 104.979
2.15526 0.0552632 105.059
2.19211 0.0552632 105.149
2.22895 0.0552632 105.249
2.26579 0.0552632 105.359
2.30263 0.0552632 105.48
2.33947 0.0552632 105.612
2.37632 0.0552632 105.758
2.41316 0.0552632 105.917
2.45 0.0552632 106.092
2.48684 0.0552632 106.282
2.52368 0.0552632 106.491
2.56053 0.0552632 106.719
2.59737 0.0552632 106.97
2.63421 0.0552632 107.245
2.67105 0.0552632 107.547
2.70789 0.0552632 107.88
2.74474 0.0552632 108.249
2.78158 0.0552632 108.659
2.81842 0.0552632 109.115
2.85526 0.0552632 109.627
2.89211 0.0552632 110.203
2.92895 0.0552632 110.856
2.96579 0.0552632 111.601
3.00263 0.0552632 112.459
3.03947 0.0552632 113.456
3.07632 0.0552632 114.627
3.11316 0.0552632 116.022
3.15 0.0552632 117.709
3.18684 0.0552632 119.786
3.22368 0.0552632 122.401
3.26053 0.0552632 125.782
3.29737 0.0552632 130.298
3.33421 0.0552632 136.57
3.37105 0.0552632 145.698
3.40789 0.0552632 159.694
3.44474 0.0552632 182.27
3.48158 0.0552632 219.775
3.51842 0.0552632 300
-0.0184211 0.0921053 300
0.0184211 0.0921053 224.73
0.0552632 0.0921053 197.23
0.0921053 0.0921053 176.588
0.128947 0.0921053 161.733
0.165789 0.0921053 151.02
0.202632 0.0921053 143.142
0.239474 0.0921053 137.206
0.276316 0.0921053 132.62
0.313158 0.0921053 128.994
0.35 0.0921053 126.068
0.386842 0.0921053 123.664
0.423684 0.0921053 121.659
0.460526 0.0921053 119.963
0.497368 0.0921053 118.513
0.534211 0.0921053 117.26
0.571053 0.0921053 116.168
0.607895 0.0921053 115.208
0.644737 0.0921053 114.359
0.681579 0.0921053 113.604
0.718421 0.0921053 112.929
0.755263 0.0921053 112.323
0.792105 0.0921053 111.776
0.828947 0.0921053 111.281
0.865789 0.0921053 110.832
0.902632 0.0921053 110.424
0.939474 0.0921053 110.052
0.976316 0.0921053 109.712
1.01316 0.0921053 109.401
1.05 0.0921053 109.117
1.08684 0.0921053 108.858
1.12368 0.0921053 108.62
1.16053 0.0921053 108.403
1.19737 0.0921053 108.205
1.23421 0.0921053 108.024
1.27105 0.0921053 107.86
1.30789 0.0921053 107.711
1.34474 0.0921053 107.577
1.38158 0.0921053 107.457
1.41842 0.0921053 107.35
1.45526 0.0921053 107.256
1.49211 0.0921053 107.174
1.52895 0.0921053 107.103
1.56579 0.0921053 107.044
1.60263 0.0921053 106.996
1.63947 0.0921053 106.959
1.67632 0.0921053 106.933
1.71316 0.0921053 106.917
1.75 0.0921053 106.912
1.78684 0.0921053 106.917
1.82368 0.0921053 106.933
1.86053 0.0921053 106.959
1.89737 0.0921053 106.996
1.93421 0.0921053 107.044
1.97105 0.0921053 107.103
2.00789 0.0921053 107.174
2.04474 0.0921053 107.256
2.08158 0.0921053 107.35
2.11842 0.0921053 107.457
2.15526 0.0921053 107.577
2.19211 0.0921053 107.711
2.22895 0.0921053 107.86
2.26579 0.0921053 108.024
2.30263 0.0921053 108.205
2.33947 0.0921053 108.403
2.37632 0.0921053 108.62
2.41316 0.0921053 108.858
2.45 0.0921053 109.117
2.48684 0.0921053 109.401
2.52368 0.0921053 109.712
2.56053 0.0921053 110.052
2.59737 0.0921053 110.424
2.63421 0.0921053 110.832
2.67105 0.0921053 111.281
2.70789 0.0921053 111.776
2.74474 0.0921053 112.323
2.78158 0.0921053 112.929
2.81842 0.0921053 113.604
2.85526 0.0921053 114.359
2.89211 0.0921053 115.208
2.92895 0.0921053 116.168
2.96579 0.0921053 117.26
3.00263 0.0921053 118.513
3.03947 0.0921053 119.963
3.07632 0.0921053 121.659
3.11316 0.0921053 123.664
3.15 0.0921053 126.068
3.18684 0.0921053 128.994
3.22368 0.0921053 132.62
3.26053 0.0921053 137.206
3.29737 0.0921053 143.142
3.33421 0.0921053 151.02
3.37105 0.0921053 161.733
3.40789 0.0921053 176.588
3.44474 0.0921053 197.23
3.48158 0.0921053 224.73
3.51842 0.0921053 300
-0.0184211 0.128947 300
0.0184211 0.128947 226.179
0.0552632 0.128947 205.333
0.0921053 0.128947 187.696
0.128947 0.128947 173.627
0.165789 0.128947 162.632
0.202632 0.128947 154.046
0.239474 0.128947 147.28
0.276316 0.128947 141.878
0.313158 0.128947 137.501
0.35 0.128947 133.904
0.386842 0.128947 130.908
0.423684 0.128947 128.381
0.460526 0.128947 126.226
0.497368 0.128947 124.37
0.534211 0.128947 122.758
0.571053 0.128947 121.347
0.607895 0.128947 120.102
0.644737 0.128947 118.998
0.681579 0.128947 118.014
0.718421 0.128947 117.131
0.755263 0.128947 116.337
0.792105 0.128947 115.62
0.828947 0.128947 114.97
0.865789 0.128947 114.38
0.902632 0.128947 113.842
0.939474 0.128947 113.352
0.976316 0.128947 112.903
1.01316 0.128947 112.494
1.05 0.128947 112.119
1.08684 0.128947 111.775
1.12368 0.128947 111.461
1.16053 0.128947 111.174
1.19737 0.128947 110.912
1.23421 0.128947 110.673
1.27105 0.128947 110.456
1.30789 0.128947 110.259
1.34474 0.128947 110.081
1.38158 0.128947 109.922
1.41842 0.128947 109.78
1.45526 0.128947 109.655
1.49211 0.128947 109.546
1.52895 0.128947 109.453
1.56579 0.128947 109.375
1.60263 0.128947 109.311
1.63947 0.128947 109.262
1.67632 0.128947 109.227
1.71316 0.128947 109.206
1.75 0.128947 109.199
1.78684 0.128947 109.206
1.82368 0.128947 109.227
1.86053 0.128947 109.262
1.89737 0.128947 109.311
1.93421 0.128947 109.375
1.97105 0.128947 109.453
2.00789 0.128947 109.546
2.04474 0.128947 109.655
2.08158 0.128947 109.78
2.11842 0.128947 109.922
2.15526 0.128947 110.081
2.19211 0.128947 110.259
2.22895 0.128947 110.456
2.26579 0.128947 110.673
2.30263 0.128947 110.912
2.33947 0.128947 111.174
2.37632 0.128947 111.461
2.41316 0.128947 111.775
2.45 0.128947 112.119
2.48684 0.128947 112.494
2.52368 0.128947 112.903
2.56053 0.128947 113.352
2.59737 0.128947 113.842
2.63421 0.128947 114.38
2.67105 0.128947 114.97
2.70789 0.128947 115.62
2.74474 0.128947 116.337
2.78158 0.128947 117.131
2.81842 0.128947 118.014
2.85526 0.128947 118.998
2.89211 0.128947 120.102
2.92895 0.128947 121.347
2.96579 0.128947 122.758
3.00263 0.128947 124.37
3.03947 0.128947 126.226
3.07632 0.128947 128.381
3.11316 0.128947 130.908
3.15 0.128947 133.904
3.18684 0.128947 137.501
3.22368 0.128947 141.878
3.26053 0.128947 147.28
3.29737 0.128947 154.046
3.33421 0.128947 162.632
3.37105 0.128947 173.627
3.40789 0.128947 187.696
3.44474 0.128947 205.333
3.48158 0.128947 226.179
3.51842 0.128947 300
-0.0184211 0.165789 300
0.0184211 0.165789 226.866
0.0552632 0.165789 210.225
0.0921053 0.165789 195.236
0.128947 0.165789 182.448
0.165789 0.165789 171.836
0.202632 0.165789 163.129
0.239474 0.165789 155.99
0.276316 0.165789 150.11
0.313158 0.165789 145.229
0.35 0.165789 141.14
0.386842 0.165789 137.682
0.423684 0.165789 134.731
0.460526 0.165789 132.19
0.497368 0.165789 129.984
0.534211 0.165789 128.056
0.571053 0.165789 126.359
0.607895 0.165789 124.856
0.644737 0.165789 123.518
0.681579 0.165789 122.32
0.718421 0.165789 121.245
0.755263 0.165789 120.274
0.792105 0.165789 119.396
0.828947 0.165789 118.599
0.865789 0.165789 117.874
0.902632 0.165789 117.213
0.939474 0.165789 116.609
0.976316 0.165789 116.057
1.01316 0.165789 115.551
1.05 0.165789 115.088
1.08684 0.165789 114.664
1.12368 0.165789 114.276
1.16053 0.165789 113.921
1.19737 0.165789 113.596
1.23421 0.165789 113.3
1.27105 0.165789 113.031
1.30789 0.165789 112.787
1.34474 0.165789 112.567
1.38158 0.165789 112.37
1.41842 0.165789 112.194
1.45526 0.165789 112.039
1.49211 0.165789 111.904
1.52895 0.165789 111.788
1.56579 0.165789 111.691
1.60263 0.165789 111.612
1.63947 0.165789 111.551
1.67632 0.165789 111.508
1.71316 0.165789 111.482
1.75 0.165789 111.473
1.78684 0.165789 111.482
1.82368 0.165789 111.508
1.86053 0.165789 111.551
1.89737 0.165789 111.612
1.93421 0.165789 111.691
1.97105 0.165789 111.788
2.00789 0.165789 111.904
2.04474 0.165789 112.039
2.08158 0.165789 112.194
2.11842 0.165789 112.37
2.15526 0.165789 112.567
2.19211 0.165789 112.787
2.22895 0.165789 113.031
2.26579 0.165789 113.3
2.30263 0.165789 113.596
2.33947 0.165789 113.921
2.37632 0.165789 114.276
2.41316 0.165789 114.664
2.45 0.165789 115.088
2.48684 0.165789 115.551
2.52368 0.165789 116.057
2.56053 0.165789 116.609
2.59737 0.165789 117.213
2.63421 0.165789 117.874
2.67105 0.165789 118.599
2.70789 0.165789 119.396
2.74474 0.165789 120.274
2.78158 0.165789 121.245
2.81842 0.165789 122.32
2.85526 0.165789 123.518
2.89211 0.165789 124.856
2.92895 0.165789 126.359
2.96579 0.165789 128.056
3.00263 0.165789 129.984
3.03947 0.165789 132.19
3.07632 0.165789 134.731
3.11316 0.165789 137.682
3.15 0.165789 141.14
3.18684 0.165789 145.229
3.22368 0.165789 150.11
3.26053 0.165789 155.99
3.29737 0.165789 163.129
3.33421 0.165789 171.836
3.37105 0.165789 182.448
3.40789 0.165789 195.236
3.44474 0.165789 210.225
3.48158 0.165789 226.866
3.51842 0.165789 300
-0.0184211 0.202632 300
0.0184211 0.202632 227.293
0.0552632 0.202632 213.464
0.0921053 0.202632 200.577
0.128947 0.202632 189.09
0.165789 0.202632 179.136
0.202632 0.202632 170.642
0.239474 0.202632 163.442
0.276316 0.202632 157.344
0.313158 0.202632 152.165
0.35 0.202632 147.745
0.386842 0.202632 143.95
0.423684 0.202632 140.67
0.460526 0.202632 137.817
0.497368 0.202632 135.321
0.534211 0.202632 133.123
0.571053 0.202632 131.177
0.607895 0.202632 129.445
0.644737 0.202632 127.896
0.681579 0.202632 126.506
0.718421 0.202632 125.253
0.755263 0.202632 124.12
0.792105 0.202632 123.092
0.828947 0.202632 122.157
0.865789 0.202632 121.305
0.902632 0.202632 120.527
0.939474 0.202632 119.815
0.976316 0.202632 119.163
1.01316 0.202632 118.566
1.05 0.202632 118.019
1.08684 0.202632 117.517
1.12368 0.202632 117.057
1.16053 0.202632 116.636
1.19737 0.202632 116.252
1.23421 0.202632 115.901
1.27105 0.202632 115.581
1.30789 0.202632 115.292
1.34474 0.202632 115.03
1.38158 0.202632 114.796
1.41842 0.202632 114.587
1.45526 0.202632 114.403
1.49211 0.202632 114.242
1.52895 0.202632 114.104
1.56579 0.202632 113.989
1.60263 0.202632 113.895
1.63947 0.202632 113.822
1.67632 0.202632 113.771
1.71316 0.202632 113.74
1.75 0.202632 113.73
1.78684 0.202632 113.74
1.82368 0.202632 113.771
1.86053 0.202632 113.822
1.89737 0.202632 113.895
1.93421 0.202632 113.989
1.97105 0.202632 114.104
2.00789 0.202632 114.242
2.04474 0.202632 114.403
2.08158 0.202632 114.587
2.11842 0.202632 114.796
2.15526 0.202632 115.03
2.19211 0.202632 115.292
2.22895 0.202632 115.581
2.26579 0.202632 115.901
2.30263 0.202632 116.252
2.33947 0.202632 116.636
2.37632 0.202632 117.057
2.41316 0.202632 117.517
2.45 0.202632 118.019
2.48684 0.202632 118.566
2.52368 0.202632 119.163
2.56053 0.202632 119.815
2.59737 0.202632 120.527
2.63421 0.202632 121.305
2.67105 0.202632 122.157
2.70789 0.202632 123.092
2.74474 0.202632 124.12
2.78158 0.202632 125.253
2.81842 0.202632 126.506
2.85526 0.202632 127.896
2.89211 0.202632 129.445
2.92895 0.202632 131.177
2.96579 0.202632 133.123
3.00263 0.202632 135.321
3.03947 0.202632 137.817
3.07632 0.202632 140.67
3.11316 0.202632 143.95
3.15 0.202632 147.745
3.18684 0.202632 152.165
3.22368 0.202632 157.344
3.26053 0.202632 163.442
3.29737 0.202632 170.642
3.33421 0.202632 179.136
3.37105 0.202632 189.09
3.40789 0.202632 200.577
3.44474 0.202632 213.464
3.48158 0.202632 227.293
3.51842 0.202632 300
-0.0184211 0.239474 300
0.0184211 0.239474 227.592
0.0552632 0.239474 215.763
0.0921053 0.239474 204.517
0.128947 0.239474 194.201
0.165789 0.239474 184.976
0.202632 0.239474 176.862
0.239474 0.239474 169.792
0.276316 0.239474 163.659
0.313158 0.239474 158.342
0.35 0.239474 153.725
0.386842 0.239474 149.702
0.423684 0.239474 146.182
0.460526 0.239474 143.089
0.497368 0.239474 140.359
0.534211 0.239474 137.937
0.571053 0.239474 135.78
0.607895 0.239474 133.85
0.644737 0.239474 132.117
0.681579 0.239474 130.554
0.718421 0.239474 129.141
0.755263 0.239474 127.859
0.792105 0.239474 126.694
0.828947 0.239474 125.632
0.865789 0.239474 124.661
0.902632 0.239474 123.774
0.939474 0.239474 122.961
0.976316 0.239474 122.215
1.01316 0.239474 121.532
1.05 0.239474 120.904
1.08684 0.239474 120.328
1.12368 0.239474 119.8
1.16053 0.239474 119.316
1.19737 0.239474 118.874
1.23421 0.239474 118.47
1.27105 0.239474 118.102
1.30789 0.239474 117.768
1.34474 0.239474 117.467
1.38158 0.239474 117.196
1.41842 0.239474 116.955
1.45526 0.239474 116.743
1.49211 0.239474 116.557
1.52895 0.239474 116.398
1.56579 0.239474 116.265
1.60263 0.239474 116.156
1.63947 0.239474 116.073
1.67632 0.239474 116.013
1.71316 0.239474 115.977
1.75 0.239474 115.966
1.78684 0.239474 115.977
1.82368 0.239474 116.013
1.86053 0.239474 116.073
1.89737 0.239474 116.156
1.93421 0.239474 116.265
1.97105 0.239474 116.398
2.00789 0.239474 116.557
2.04474 0.239474 116.743
2.08158 0.239474 116.955
2.11842 0.239474 117.196
2.15526 0.239474 117.467
2.19211 0.239474 117.768
2.22895 0.239474 118.102
2.26579 0.239474 118.47
2.30263 0.239474 118.874
2.33947 0.239474 119.316
2.37632 0.239474 119.8
2.41316 0.239474 120.328
2.45 0.239474 120.904
2.48684 0.239474 121.532
2.52368 0.239474 122.215
2.56053 0.239474 122.961
2.59737 0.239474 123.774
2.63421 0.239474 124.661
2.67105 0.239474 125.632
2.70789 0.239474 126.694
2.74474 0.239474 127.859
2.78158 0.239474 129.141
2.81842 0.239474 130.554
2.85526 0.239474 132.117
2.89211 0.239474 133.85
2.92895 0.239474 135.78
2.96579 0.239474 137.937
3.00263 0.239474 140.359
3.03947 0.239474 143.089
3.07632 0.239474 146.182
3.11316 0.239474 149.702
3.15 0.239474 153.725
3.18684 0.239474 158.342
3.22368 0.239474 163.659
3.26053 0.239474 169.792
3.29737 0.239474 176.862
3.33421 0.239474 184.976
3.37105 0.239474 194.201
3.40789 0.239474 204.517
3.44474 0.239474 215.763
3.48158 0.239474 227.592
3.51842 0.239474 300
-0.0184211 0.276316 300
0.0184211 0.276316 227.814
0.0552632 0.276316 217.478
0.0921053 0.276316 207.528
0.128947 0.276316 198.22
0.165789 0.276316 189.704
0.202632 0.276316 182.037
0.239474 0.276316 175.206
0.276316 0.276316 169.159
0.313158 0.276316 163.82
0.35 0.276316 159.11
0.386842 0.276316 154.95
0.423684 0.276316 151.268
0.460526 0.276316 147.999
0.497368 0.276316 145.089
0.534211 0.276316 142.488
0.571053 0.276316 140.156
0.607895 0.276316 138.059
0.644737 0.276316 136.166
0.681579 0.276316 134.453
0.718421 0.276316 132.898
0.755263 0.276316 131.483
0.792105 0.276316 130.193
0.828947 0.276316 129.014
0.865789 0.276316 127.935
0.902632 0.276316 126.946
0.939474 0.276316 126.039
0.976316 0.276316 125.206
1.01316 0.276316 124.441
1.05 0.276316 123.737
1.08684 0.276316 123.092
1.12368 0.276316 122.499
1.16053 0.276316 121.955
1.19737 0.276316 121.457
1.23421 0.276316 121.002
1.27105 0.276316 120.588
1.30789 0.276316 120.212
1.34474 0.276316 119.873
1.38158 0.276316 119.568
1.41842 0.276316 119.296
1.45526 0.276316 119.056
1.49211 0.276316 118.846
1.52895 0.276316 118.667
1.56579 0.276316 118.516
1.60263 0.276316 118.394
1.63947 0.276316 118.299
1.67632 0.276316 118.232
1.71316 0.276316 118.191
1.75 0.276316 118.178
1.78684 0.276316 118.191
1.82368 0.276316 118.232
1.86053 0.276316 118.299
1.89737 0.276316 118.394
1.93421 0.276316 118.516
1.97105 0.276316 118.667
2.00789 0.276316 118.846
2.04474 0.276316 119.056
2.08158 0.276316 119.296
2.11842 0.276316 119.568
2.15526 0.276316 119.873
2.19211 0.276316 120.212
2.22895 0.276316 120.588
2.26579 0.276316 121.002
2.30263 0.276316 121.457
2.33947 0.276316 121.955
2.37632 0.276316 122.499
2.41316 0.276316 123.092
2.45 0.276316 123.737
2.48684 0.276316 124.441
2.52368 0.276316 125.206
2.56053 0.276316 126.039
2.59737 0.276316 126.946
2.63421 0.276316 127.935
2.67105 0.276316 129.014
2.70789 0.276316 130.193
2.74474 0.276316 131.483
2.78158 0.276316 132.898
2.81842 0.276316 134.453
2.85526 0.276316 136.166
2.89211 0.276316 138.059
2.92895 0.276316 140.156
2.96579 0.276316 142.488
3.00263 0.276316 145.089
3.03947 0.276316 147.999
3.07632 0.276316 151.268
3.11316 0.276316 154.95
3.15 0.276316 159.11
3.18684 0.276316 163.82
3.22368 0.276316 169.159
3.26053 0.276316 175.206
3.29737 0.276316 182.037
3.33421 0.276316 189.704
3.37105 0.276316 198.22
3.40789 0.276316 207.528
3.44474 0.276316 217.478
3.48158 0.276316 227.814
3.51842 0.276316 300
-0.0184211 0.313158 300
0.0184211 0.313158 227.987
0.0552632 0.313158 218.808
0.0921053 0.313158 209.897
0.128947 0.313158 201.446
0.165789 0.313158 193.584
0.202632 0.313158 186.375
0.239474 0.313158 179.837
0.276316 0.313158 173.949
0.313158 0.313158 168.669
0.35 0.313158 163.945
0.386842 0.313158 159.72
0.423684 0.313158 155.939
0.460526 0.313158 152.551
0.497368 0.313158 149.508
0.534211 0.313158 146.77
0.571053 0.313158 144.298
0.607895 0.313158 142.063
0.644737 0.313158 140.036
0.681579 0.313158 138.193
0.718421 0.313158 136.515
0.755263 0.313158 134.982
0.792105 0.313158 133.581
0.828947 0.313158 132.297
0.865789 0.313158 131.119
0.902632 0.313158 130.038
0.939474 0.313158 129.043
0.976316 0.313158 128.129
1.01316 0.313158 127.288
1.05 0.313158 126.514
1.08684 0.313158 125.802
1.12368 0.313158 125.148
1.16053 0.313158 124.548
1.19737 0.313158 123.998
1.23421 0.313158 123.495
1.27105 0.313158 123.036
1.30789 0.313158 122.62
1.34474 0.313158 122.244
1.38158 0.313158 121.906
1.41842 0.313158 121.604
1.45526 0.313158 121.338
1.49211 0.313158 121.106
1.52895 0.313158 120.906
1.56579 0.313158 120.739
1.60263 0.313158 120.603
1.63947 0.313158 120.498
1.67632 0.313158 120.423
1.71316 0.313158 120.378
1.75 0.313158 120.364
1.78684 0.313158 120.378
1.82368 0.313158 120.423
1.86053 0.313158 120.498
1.89737 0.313158 120.603
1.93421 0.313158 120.739
1.97105 0.313158 120.906
2.00789 0.313158 121.106
2.04474 0.313158 121.338
2.08158 0.313158 121.604
2.11842 0.313158 121.906
2.15526 0.313158 122.244
2.19211 0.313158 122.62
2.22895 0.313158 123.036
2.26579 0.313158 123.495
2.30263 0.313158 123.998
2.33947 0.313158 124.548
2.37632 0.313158 125.148
2.41316 0.313158 125.802
2.45 0.313158 126.514
2.48684 0.313158 127.288
2.52368 0.313158 128.129
2.56053 0.313158 129.043
2.59737 0.313158 130.038
2.63421 0.313158 131.119
2.67105 0.313158 132.297
2.70789 0.313158 133.581
2.74474 0.313158 134.982
2.78158 0.313158 136.515
2.81842 0.313158 138.193
2.85526 0.313158 140.036
2.89211 0.313158 142.063
2.92895 0.313158 144.298
2.96579 0.313158 146.77
3.00263 0.313158 149.508
3.03947 0.313158 152.551
3.07632 0.313158 155.939
3.11316 0.313158 159.72
3.15 0.313158 163.945
3.18684 0.313158 168.669
3.22368 0.313158 173.949
3.26053 0.313158 179.837
3.29737 0.313158 186.375
3.33421 0.313158 193.584
3.37105 0.313158 201.446
3.40789 0.313158 209.897
3.44474 0.313158 218.808
3.48158 0.313158 227.987
3.51842 0.313158 300
-0.0184211 0.35 300
0.0184211 0.35 228.124
0.0552632 0.35 219.868
0.0921053 0.35 211.807
0.128947 0.35 204.085
0.165789 0.35 196.809
0.202632 0.35 190.044
0.239474 0.35 183.818
0.276316 0.35 178.131
0.313158 0.35 172.963
0.35 0.35 168.281
0.386842 0.35 164.047
0.423684 0.35 160.219
0.460526 0.35 156.757
0.497368 0.35 153.624
0.534211 0.35 150.784
0.571053 0.35 148.205
0.607895 0.35 145.859
0.644737 0.35 143.721
0.681579 0.35 141.77
0.718421 0.35 139.985
0.755263 0.35 138.351
0.792105 0.35 136.851
0.828947 0.35 135.474
0.865789 0.35 134.207
0.902632 0.35 133.041
0.939474 0.35 131.968
0.976316 0.35 130.979
1.01316 0.35 130.067
1.05 0.35 129.228
1.08684 0.35 128.455
1.12368 0.35 127.744
1.16053 0.35 127.09
1.19737 0.35 126.491
1.23421 0.35 125.943
1.27105 0.35 125.442
1.30789 0.35 124.988
1.34474 0.35 124.577
1.38158 0.35 124.207
1.41842 0.35 123.878
1.45526 0.35 123.586
1.49211 0.35 123.332
1.52895 0.35 123.114
1.56579 0.35 122.931
1.60263 0.35 122.782
1.63947 0.35 122.667
1.67632 0.35 122.585
1.71316 0.35 122.536
1.75 0.35 122.519
1.78684 0.35 122.536
1.82368 0.35 122.585
1.86053 0.35 122.667
1.89737 0.35 122.782
1.93421 0.35 122.931
1.97105 0.35 123.114
2.00789 0.35 123.332
2.04474 0.35 123.586
2.08158 0.35 123.878
2.11842 0.35 124.207
2.15526 0.35 124.577
2.19211 0.35 124.988
2.22895 0.35 125.442
2.26579 0.35 125.943
2.30263 0.35 126.491
2.33947 0.35 127.09
2.37632 0.35 127.744
2.41316 0.35 128.455
2.45 0.35 129.228
2.48684 0.35 130.067
2.52368 0.35 130.979
2.56053 0.35 131.968
2.59737 0.35 133.041
2.63421 0.35 134.207
2.67105 0.35 135.474
2.70789 0.35 136.851
2.74474 0.35 138.351
2.78158 0.35 139.985
2.81842 0.35 141.77
2.85526 0.35 143.721
2.89211 0.35 145.859
2.92895 0.35 148.205
2.96579 0.35 150.784
3.00263 0.35 153.624
3.03947 0.35 156.757
3.07632 0.35 160.219
3.11316 0.35 164.047
3.15 0.35 168.281
3.18684 0.35 172.963
3.22368 0.35 178.131
3.26053 0.35 183.818
3.29737 0.35 190.044
3.33421 0.35 196.809
3.37105 0.35 204.085
3.40789 0.35 211.807
3.44474 0.35 219.868
3.48158 0.35 228.124
3.51842 0.35 300
-0.0184211 0.386842 300
0.0184211 0.386842 228.237
0.0552632 0.386842 220.734
0.0921053 0.386842 213.377
0.128947 0.386842 206.278
0.165789 0.386842 199.523
0.202632 0.386842 193.173
0.239474 0.386842 187.259
0.276316 0.386842 181.794
0.313158 0.386842 176.77
0.35 0.386842 172.169
0.386842 0.386842 167.967
0.423684 0.386842 164.132
0.460526 0.386842 160.636
0.497368 0.386842 157.447
0.534211 0.386842 154.536
0.571053 0.386842 151.878
0.607895 0.386842 149.447
0.644737 0.386842 147.221
0.681579 0.386842 145.18
0.718421 0.386842 143.306
0.755263 0.386842 141.584
0.792105 0.386842 139.999
0.828947 0.386842 138.54
0.865789 0.386842 137.194
0.902632 0.386842 135.953
0.939474 0.386842 134.808
0.976316 0.386842 133.751
1.01316 0.386842 132.776
1.05 0.386842 131.876
1.08684 0.386842 131.046
1.12368 0.386842 130.281
1.16053 0.386842 129.579
1.19737 0.386842 128.933
1.23421 0.386842 128.342
1.27105 0.386842 127.803
1.30789 0.386842 127.312
1.34474 0.386842 126.869
1.38158 0.386842 126.469
1.41842 0.386842 126.113
1.45526 0.386842 125.798
1.49211 0.386842 125.523
1.52895 0.386842 125.287
1.56579 0.386842 125.088
1.60263 0.386842 124.927
1.63947 0.386842 124.802
1.67632 0.386842 124.714
1.71316 0.386842 124.66
1.75 0.386842 124.643
1.78684 0.386842 124.66
1.82368 0.386842 124.714
1.86053 0.386842 124.802
1.89737 0.386842 124.927
1.93421 0.386842 125.088
1.97105 0.386842 125.287
2.00789 0.386842 125.523
2.04474 0.386842 125.798
2.08158 0.386842 126.113
2.11842 0.386842 126.469
2.15526 0.386842 126.869
2.19211 0.386842 127.312
2.22895 0.386842 127.803
2.26579 0.386842 128.342
2.30263 0.386842 128.933
2.33947 0.386842 129.579
2.37632 0.386842 130.281
2.41316 0.386842 131.046
2.45 0.386842 131.876
2.48684 0.386842 132.776
2.52368 0.386842 133.751
2.56053 0.386842 134.808
2.59737 0.386842 135.953
2.63421 0.386842 137.194
2.67105 0.386842 138.54
2.70789 0.386842 139.999
2.74474 0.386842 141.584
2.78158 0.386842 143.306
2.81842 0.386842 145.18
2.85526 0.386842 147.221
2.89211 0.386842 149.447
2.92895 0.386842 151.878
2.96579 0.386842 154.536
3.00263 0.386842 157.447
3.03947 0.386842 160.636
3.07632 0.386842 164.132
3.11316 0.386842 167.967
3.15 0.386842 172.169
3.18684 0.386842 176.77
3.22368 0.386842 181.794
3.26053 0.386842 187.259
3.29737 0.386842 193.173
3.33421 0.386842 199.523
3.37105 0.386842 206.278
3.40789 0.386842 213.377
3.44474 0.386842 220.734
3.48158 0.386842 228.237
3.51842 0.386842 300
-0.0184211 0.423684 300
0.0184211 0.423684 228.33
0.0552632 0.423684 221.454
0.0921053 0.423684 214.69
0.128947 0.423684 208.126
0.165789 0.423684 201.833
0.202632 0.423684 195.864
0.239474 0.423684 190.253
0.276316 0.423684 185.016
0.313158 0.423684 180.154
0.35 0.423684 175.66
0.386842 0.423684 171.518
0.423684 0.423684 167.708
0.460526 0.423684 164.206
0.497368 0.423684 160.991
0.534211 0.423684 158.037
0.571053 0.423684 155.324
0.607895 0.423684 152.83
0.644737 0.423684 150.535
0.681579 0.423684 148.422
0.718421 0.423684 146.475
0.755263 0.423684 144.68
0.792105 0.423684 143.022
0.828947 0.423684 141.492
0.865789 0.423684 140.077
0.902632 0.423684 138.769
0.939474 0.423684 137.56
0.976316 0.423684 136.442
1.01316 0.423684 135.408
1.05 0.423684 134.453
1.08684 0.423684 133.571
1.12368 0.423684 132.758
1.16053 0.423684 132.009
1.19737 0.423684 131.321
1.23421 0.423684 130.691
1.27105 0.423684 130.115
1.30789 0.423684 129.59
1.34474 0.423684 129.116
1.38158 0.423684 128.688
1.41842 0.423684 128.307
1.45526 0.423684 127.969
1.49211 0.423684 127.675
1.52895 0.423684 127.421