TITLE = "2D mesh with final value"
VARIABLES = "X" "Y" "scalar"
ZONE I=102, J=102, F=POINT
-0.0175 -0.0175 650
0.0175 -0.0175 900
0.0525 -0.0175 900
0.0875 -0.0175 900
0.1225 -0.0175 900
0.1575 -0.0175 900
0.1925 -0.0175 900
0.2275 -0.0175 900
0.2625 -0.0175 900
0.2975 -0.0175 900
0.3325 -0.0175 900
0.3675 -0.0175 900
0.4025 -0.0175 900
0.4375 -0.0175 900
0.4725 -0.0175 900
0.5075 -0.0175 900
0.5425 -0.0175 900
0.5775 -0.0175 900
0.6125 -0.0175 900
0.6475 -0.0175 900
0.6825 -0.0175 900
0.7175 -0.0175 900
0.7525 -0.0175 900
0.7875 -0.0175 900
0.8225 -0.0175 900
0.8575 -0.0175 900
0.8925 -0.0175 900
0.9275 -0.0175 900
0.9625 -0.0175 900
0.9975 -0.0175 900
1.0325 -0.0175 900
1.0675 -0.0175 900
1.1025 -0.0175 900
1.1375 -0.0175 900
1.1725 -0.0175 900
1.2075 -0.0175 900
1.2425 -0.0175 900
1.2775 -0.0175 900
1.3125 -0.0175 900
1.3475 -0.0175 900
1.3825 -0.0175 900
1.4175 -0.0175 900
1.4525 -0.0175 900
1.4875 -0.0175 900
1.5225 -0.0175 900
1.5575 -0.0175 900
1.5925 -0.0175 900
1.6275 -0.0175 900
1.6625 -0.0175 900
1.6975 -0.0175 900
1.7325 -0.0175 900
1.7675 -0.0175 900
1.8025 -0.0175 900
1.8375 -0.0175 900
1.8725 -0.0175 900
1.9075 -0.0175 900
1.9425 -0.0175 900
1.9775 -0.0175 900
2.0125 -0.0175 900
2.0475 -0.0175 900
2.0825 -0.0175 900
2.1175 -0.0175 900
2.1525 -0.0175 900
2.1875 -0.0175 900
2.2225 -0.0175 900
2.2575 -0.0175 900
2.2925 -0.0175 900
2.3275 -0.0175 900
2.3625 -0.0175 900
2.3975 -0.0175 900
2.4325 -0.0175 900
2.4675 -0.0175 900
2.5025 -0.0175 900
2.5375 -0.0175 900
2.5725 -0.0175 900
2.6075 -0.0175 900
2.6425 -0.0175 900
2.6775 -0.0175 900
2.7125 -0.0175 900
2.7475 -0.0175 900
2.7825 -0.0175 900
2.8175 -0.0175 900
2.8525 -0.0175 900
2.8875 -0.0175 900
2.9225 -0.0175 900
2.9575 -0.0175 900
2.9925 -0.0175 900
3.0275 -0.0175 900
3.0625 -0.0175 900
3.0975 -0.0175 900
3.1325 -0.0175 900
3.1675 -0.0175 900
3.2025 -0.0175 900
3.2375 -0.0175 900
3.2725 -0.0175 900
3.3075 -0.0175 900
3.3425 -0.0175 900
3.3775 -0.0175 900
3.4125 -0.0175 900
3.4475 -0.0175 900
3.4825 -0.0175 900
3.5175 -0.0175 850
-0.0175 0.0175 400
0.0175 0.0175 650.011
0.0525 0.0175 748.848
0.0875 0.0175 795.338
0.1225 0.0175 820.795
0.1575 0.0175 836.49
0.1925 0.0175 847.049
0.2275 0.0175 854.618
0.2625 0.0175 860.304
0.2975 0.0175 864.732
0.3325 0.0175 868.277
0.3675 0.0175 871.18
0.4025 0.0175 873.601
0.4375 0.0175 875.651
0.4725 0.0175 877.409
0.5075 0.0175 878.935
0.5425 0.0175 880.27
0.5775 0.0175 881.45
0.6125 0.0175 882.499
0.6475 0.0175 883.439
0.6825 0.0175 884.285
0.7175 0.0175 885.051
0.7525 0.0175 885.749
0.7875 0.0175 886.386
0.8225 0.0175 886.97
0.8575 0.0175 887.509
0.8925 0.0175 888.006
0.9275 0.0175 888.466
0.9625 0.0175 888.894
0.9975 0.0175 889.293
1.0325 0.0175 889.665
1.0675 0.0175 890.013
1.1025 0.0175 890.34
1.1375 0.0175 890.647
1.1725 0.0175 890.935
1.2075 0.0175 891.207
1.2425 0.0175 891.464
1.2775 0.0175 891.707
1.3125 0.0175 891.937
1.3475 0.0175 892.155
1.3825 0.0175 892.362
1.4175 0.0175 892.559
1.4525 0.0175 892.745
1.4875 0.0175 892.923
1.5225 0.0175 893.092
1.5575 0.0175 893.253
1.5925 0.0175 893.407
1.6275 0.0175 893.553
1.6625 0.0175 893.693
1.6975 0.0175 893.826
1.7325 0.0175 893.954
1.7675 0.0175 894.075
1.8025 0.0175 894.191
1.8375 0.0175 894.301
1.8725 0.0175 894.406
1.9075 0.0175 894.507
1.9425 0.0175 894.602
1.9775 0.0175 894.693
2.0125 0.0175 894.779
2.0475 0.0175 894.86
2.0825 0.0175 894.937
2.1175 0.0175 895.009
2.1525 0.0175 895.077
2.1875 0.0175 895.141
2.2225 0.0175 895.2
2.2575 0.0175 895.254
2.2925 0.0175 895.304
2.3275 0.0175 895.349
2.3625 0.0175 895.389
2.3975 0.0175 895.424
2.4325 0.0175 895.453
2.4675 0.0175 895.477
2.5025 0.0175 895.494
2.5375 0.0175 895.506
2.5725 0.0175 895.51
2.6075 0.0175 895.506
2.6425 0.0175 895.494
2.6775 0.0175 895.473
2.7125 0.0175 895.442
2.7475 0.0175 895.4
2.7825 0.0175 895.345
2.8175 0.0175 895.275
2.8525 0.0175 895.188
2.8875 0.0175 895.083
2.9225 0.0175 894.954
2.9575 0.0175 894.8
2.9925 0.0175 894.613
3.0275 0.0175 894.388
3.0625 0.0175 894.116
3.0975 0.0175 893.786
3.1325 0.0175 893.38
3.1675 0.0175 892.879
3.2025 0.0175 892.248
3.2375 0.0175 891.441
3.2725 0.0175 890.381
3.3075 0.0175 888.945
3.3425 0.0175 886.911
3.3775 0.0175 883.85
3.4125 0.0175 878.836
3.4475 0.0175 869.615
3.4825 0.0175 849.925
3.5175 0.0175 800
-0.0175 0.0525 400
0.0175 0.0525 551.195
0.0525 0.0525 650.043
0.0875 0.0525 711.707
0.1225 0.0525 751.353
0.1575 0.0525 778.118
0.1925 0.0525 797.088
0.2275 0.0525 811.118
0.2625 0.0525 821.867
0.2975 0.0525 830.346
0.3325 0.0525 837.196
0.3675 0.0525 842.842
0.4025 0.0525 847.573
0.4375 0.0525 851.593
0.4725 0.0525 855.052
0.5075 0.0525 858.059
0.5425 0.0525 860.697
0.5775 0.0525 863.03
0.6125 0.0525 865.108
0.6475 0.0525 866.971
0.6825 0.0525 868.65
0.7175 0.0525 870.172
0.7525 0.0525 871.558
0.7875 0.0525 872.824
0.8225 0.0525 873.987
0.8575 0.0525 875.058
0.8925 0.0525 876.048
0.9275 0.0525 876.965
0.9625 0.0525 877.818
0.9975 0.0525 878.612
1.0325 0.0525 879.354
1.0675 0.0525 880.048
1.1025 0.0525 880.699
1.1375 0.0525 881.311
1.1725 0.0525 881.887
1.2075 0.0525 882.43
1.2425 0.0525 882.943
1.2775 0.0525 883.428
1.3125 0.0525 883.887
1.3475 0.0525 884.322
1.3825 0.0525 884.735
1.4175 0.0525 885.127
1.4525 0.0525 885.5
1.4875 0.0525 885.854
1.5225 0.0525 886.192
1.5575 0.0525 886.514
1.5925 0.0525 886.821
1.6275 0.0525 887.113
1.6625 0.0525 887.392
1.6975 0.0525 887.659
1.7325 0.0525 887.913
1.7675 0.0525 888.155
1.8025 0.0525 888.387
1.8375 0.0525 888.607
1.8725 0.0525 888.818
1.9075 0.0525 889.018
1.9425 0.0525 889.209
1.9775 0.0525 889.39
2.0125 0.0525 889.562
2.0475 0.0525 889.724
2.0825 0.0525 889.878
2.1175 0.0525 890.023
2.1525 0.0525 890.159
2.1875 0.0525 890.286
2.2225 0.0525 890.404
2.2575 0.0525 890.513
2.2925 0.0525 890.613
2.3275 0.0525 890.703
2.3625 0.0525 890.783
2.3975 0.0525 890.853
2.4325 0.0525 890.912
2.4675 0.0525 890.96
2.5025 0.0525 890.995
2.5375 0.0525 891.018
2.5725 0.0525 891.027
2.6075 0.0525 891.021
2.6425 0.0525 890.998
2.6775 0.0525 890.957
2.7125 0.0525 890.896
2.7475 0.0525 890.812
2.7825 0.0525 890.704
2.8175 0.0525 890.566
2.8525 0.0525 890.396
2.8875 0.0525 890.188
2.9225 0.0525 889.935
2.9575 0.0525 889.631
2.9925 0.0525 889.265
3.0275 0.0525 888.823
3.0625 0.0525 888.291
3.0975 0.0525 887.646
3.1325 0.0525 886.858
3.1675 0.0525 885.886
3.2025 0.0525 884.673
3.2375 0.0525 883.133
3.2725 0.0525 881.139
3.3075 0.0525 878.489
3.3425 0.0525 874.85
3.3775 0.0525 869.652
3.4125 0.0525 861.878
3.4475 0.0525 849.7
3.4825 0.0525 830.085
3.5175 0.0525 800
-0.0175 0.0875 400
0.0175 0.0875 504.727
0.0525 0.0875 588.421
0.0875 0.0875 650.097
0.1225 0.0875 694.79
0.1575 0.0875 727.539
0.1925 0.0875 752.068
0.2275 0.0875 770.898
0.2625 0.0875 785.7
0.2975 0.0875 797.589
0.3325 0.0875 807.321
0.3675 0.0875 815.418
0.4025 0.0875 822.254
0.4375 0.0875 828.097
0.4725 0.0875 833.147
0.5075 0.0875 837.552
0.5425 0.0875 841.428
0.5775 0.0875 844.864
0.6125 0.0875 847.932
0.6475 0.0875 850.686
0.6825 0.0875 853.173
0.7175 0.0875 855.429
0.7525 0.0875 857.485
0.7875 0.0875 859.367
0.8225 0.0875 861.096
0.8575 0.0875 862.689
0.8925 0.0875 864.162
0.9275 0.0875 865.529
0.9625 0.0875 866.799
0.9975 0.0875 867.983
1.0325 0.0875 869.09
1.0675 0.0875 870.126
1.1025 0.0875 871.098
1.1375 0.0875 872.012
1.1725 0.0875 872.872
1.2075 0.0875 873.683
1.2425 0.0875 874.449
1.2775 0.0875 875.174
1.3125 0.0875 875.86
1.3475 0.0875 876.51
1.3825 0.0875 877.128
1.4175 0.0875 877.714
1.4525 0.0875 878.272
1.4875 0.0875 878.803
1.5225 0.0875 879.308
1.5575 0.0875 879.79
1.5925 0.0875 880.249
1.6275 0.0875 880.687
1.6625 0.0875 881.105
1.6975 0.0875 881.503
1.7325 0.0875 881.884
1.7675 0.0875 882.247
1.8025 0.0875 882.593
1.8375 0.0875 882.924
1.8725 0.0875 883.239
1.9075 0.0875 883.539
1.9425 0.0875 883.825
1.9775 0.0875 884.096
2.0125 0.0875 884.354
2.0475 0.0875 884.598
2.0825 0.0875 884.828
2.1175 0.0875 885.046
2.1525 0.0875 885.25
2.1875 0.0875 885.44
2.2225 0.0875 885.618
2.2575 0.0875 885.781
2.2925 0.0875 885.931
2.3275 0.0875 886.067
2.3625 0.0875 886.187
2.3975 0.0875 886.293
2.4325 0.0875 886.382
2.4675 0.0875 886.455
2.5025 0.0875 886.509
2.5375 0.0875 886.544
2.5725 0.0875 886.559
2.6075 0.0875 886.551
2.6425 0.0875 886.519
2.6775 0.0875 886.46
2.7125 0.0875 886.372
2.7475 0.0875 886.25
2.7825 0.0875 886.091
2.8175 0.0875 885.89
2.8525 0.0875 885.641
2.8875 0.0875 885.337
2.9225 0.0875 884.968
2.9575 0.0875 884.524
2.9925 0.0875 883.991
3.0275 0.0875 883.35
3.0625 0.0875 882.579
3.0975 0.0875 881.649
3.1325 0.0875 880.518
3.1675 0.0875 879.135
3.2025 0.0875 877.424
3.2375 0.0875 875.28
3.2725 0.0875 872.554
3.3075 0.0875 869.021
3.3425 0.0875 864.348
3.3775 0.0875 858.031
3.4125 0.0875 849.324
3.4475 0.0875 837.221
3.4825 0.0875 820.714
3.5175 0.0875 800
-0.0175 0.1225 400
0.0175 0.1225 479.291
0.0525 0.1225 548.819
0.0875 0.1225 605.467
0.1225 0.1225 650.172
0.1575 0.1225 685.182
0.1925 0.1225 712.747
0.2275 0.1225 734.706
0.2625 0.1225 752.447
0.2975 0.1225 766.99
0.3325 0.1225 779.078
0.3675 0.1225 789.257
0.4025 0.1225 797.929
0.4375 0.1225 805.395
0.4725 0.1225 811.885
0.5075 0.1225 817.574
0.5425 0.1225 822.599
0.5775 0.1225 827.069
0.6125 0.1225 831.069
0.6475 0.1225 834.669
0.6825 0.1225 837.926
0.7175 0.1225 840.886
0.7525 0.1225 843.587
0.7875 0.1225 846.063
0.8225 0.1225 848.34
0.8575 0.1225 850.44
0.8925 0.1225 852.384
0.9275 0.1225 854.188
0.9625 0.1225 855.867
0.9975 0.1225 857.433
1.0325 0.1225 858.897
1.0675 0.1225 860.268
1.1025 0.1225 861.555
1.1375 0.1225 862.765
1.1725 0.1225 863.906
1.2075 0.1225 864.981
1.2425 0.1225 865.997
1.2775 0.1225 866.958
1.3125 0.1225 867.869
1.3475 0.1225 868.732
1.3825 0.1225 869.552
1.4175 0.1225 870.331
1.4525 0.1225 871.072
1.4875 0.1225 871.777
1.5225 0.1225 872.448
1.5575 0.1225 873.088
1.5925 0.1225 873.698
1.6275 0.1225 874.281
1.6625 0.1225 874.836
1.6975 0.1225 875.366
1.7325 0.1225 875.872
1.7675 0.1225 876.355
1.8025 0.1225 876.816
1.8375 0.1225 877.256
1.8725 0.1225 877.675
1.9075 0.1225 878.075
1.9425 0.1225 878.455
1.9775 0.1225 878.816
2.0125 0.1225 879.159
2.0475 0.1225 879.485
2.0825 0.1225 879.792
2.1175 0.1225 880.082
2.1525 0.1225 880.354
2.1875 0.1225 880.608
2.2225 0.1225 880.845
2.2575 0.1225 881.064
2.2925 0.1225 881.264
2.3275 0.1225 881.445
2.3625 0.1225 881.607
2.3975 0.1225 881.749
2.4325 0.1225 881.869
2.4675 0.1225 881.968
2.5025 0.1225 882.042
2.5375 0.1225 882.092
2.5725 0.1225 882.114
2.6075 0.1225 882.107
2.6425 0.1225 882.068
2.6775 0.1225 881.994
2.7125 0.1225 881.881
2.7475 0.1225 881.725
2.7825 0.1225 881.521
2.8175 0.1225 881.263
2.8525 0.1225 880.942
2.8875 0.1225 880.551
2.9225 0.1225 880.077
2.9575 0.1225 879.507
2.9925 0.1225 878.824
3.0275 0.1225 878.006
3.0625 0.1225 877.027
3.0975 0.1225 875.851
3.1325 0.1225 874.432
3.1675 0.1225 872.711
3.2025 0.1225 870.607
3.2375 0.1225 868.011
3.2725 0.1225 864.774
3.3075 0.1225 860.694
3.3425 0.1225 855.491
3.3775 0.1225 848.798
3.4125 0.1225 840.167
3.4475 0.1225 829.146
3.4825 0.1225 815.549
3.5175 0.1225 800
-0.0175 0.1575 400
0.0175 0.1575 463.617
0.0525 0.1575 522.097
0.0875 0.1575 572.782
0.1225 0.1575 615.247
0.1575 0.1575 650.268
0.1925 0.1575 679.033
0.2275 0.1575 702.732
0.2625 0.1575 722.391
0.2975 0.1575 738.844
0.3325 0.1575 752.746
0.3675 0.1575 764.603
0.4025 0.1575 774.809
0.4375 0.1575 783.67
0.4725 0.1575 791.424
0.5075 0.1575 798.26
0.5425 0.1575 804.326
0.5775 0.1575 809.742
0.6125 0.1575 814.605
0.6475 0.1575 818.995
0.6825 0.1575 822.975
0.7175 0.1575 826.601
0.7525 0.1575 829.916
0.7875 0.1575 832.958
0.8225 0.1575 835.76
0.8575 0.1575 838.348
0.8925 0.1575 840.746
0.9275 0.1575 842.973
0.9625 0.1575 845.048
0.9975 0.1575 846.984
1.0325 0.1575 848.796
1.0675 0.1575 850.494
1.1025 0.1575 852.089
1.1375 0.1575 853.59
1.1725 0.1575 855.004
1.2075 0.1575 856.338
1.2425 0.1575 857.6
1.2775 0.1575 858.794
1.3125 0.1575 859.925
1.3475 0.1575 860.998
1.3825 0.1575 862.017
1.4175 0.1575 862.985
1.4525 0.1575 863.907
1.4875 0.1575 864.784
1.5225 0.1575 865.62
1.5575 0.1575 866.416
1.5925 0.1575 867.176
1.6275 0.1575 867.901
1.6625 0.1575 868.593
1.6975 0.1575 869.253
1.7325 0.1575 869.884
1.7675 0.1575 870.486
1.8025 0.1575 871.06
1.8375 0.1575 871.608
1.8725 0.1575 872.131
1.9075 0.1575 872.629
1.9425 0.1575 873.104
1.9775 0.1575 873.555
2.0125 0.1575 873.983
2.0475 0.1575 874.389
2.0825 0.1575 874.773
2.1175 0.1575 875.135
2.1525 0.1575 875.475
2.1875 0.1575 875.794
2.2225 0.1575 876.09
2.2575 0.1575 876.364
2.2925 0.1575 876.615
2.3275 0.1575 876.843
2.3625 0.1575 877.047
2.3975 0.1575 877.226
2.4325 0.1575 877.379
2.4675 0.1575 877.504
2.5025 0.1575 877.6
2.5375 0.1575 877.666
2.5725 0.1575 877.698
2.6075 0.1575 877.694
2.6425 0.1575 877.651
2.6775 0.1575 877.566
2.7125 0.1575 877.433
2.7475 0.1575 877.249
2.7825 0.1575 877.006
2.8175 0.1575 876.697
2.8525 0.1575 876.314
2.8875 0.1575 875.846
2.9225 0.1575 875.281
2.9575 0.1575 874.603
2.9925 0.1575 873.792
3.0275 0.1575 872.825
3.0625 0.1575 871.672
3.0975 0.1575 870.296
3.1325 0.1575 868.649
3.1675 0.1575 866.671
3.2025 0.1575 864.282
3.2375 0.1575 861.382
3.2725 0.1575 857.839
3.3075 0.1575 853.488
3.3425 0.1575 848.123
3.3775 0.1575 841.505
3.4125 0.1575 833.399
3.4475 0.1575 823.648
3.4825 0.1575 812.338
3.5175 0.1575 800
-0.0175 0.1925 400
0.0175 0.1925 453.08
0.0525 0.1925 503.169
0.0875 0.1925 548.318
0.1225 0.1925 587.768
0.1575 0.1925 621.61
0.1925 0.1925 650.386
0.2275 0.1925 674.796
0.2625 0.1925 695.542
0.2975 0.1925 713.251
0.3325 0.1925 728.457
0.3675 0.1925 741.599
0.4025 0.1925 753.035
0.4375 0.1925 763.052
0.4725 0.1925 771.882
0.5075 0.1925 779.715
0.5425 0.1925 786.702
0.5775 0.1925 792.968
0.6125 0.1925 798.616
0.6475 0.1925 803.73
0.6825 0.1925 808.38
0.7175 0.1925 812.626
0.7525 0.1925 816.516
0.7875 0.1925 820.093
0.8225 0.1925 823.393
0.8575 0.1925 826.446
0.8925 0.1925 829.277
0.9275 0.1925 831.911
0.9625 0.1925 834.366
0.9975 0.1925 836.66
1.0325 0.1925 838.808
1.0675 0.1925 840.824
1.1025 0.1925 842.717
1.1375 0.1925 844.5
1.1725 0.1925 846.182
1.2075 0.1925 847.769
1.2425 0.1925 849.27
1.2775 0.1925 850.692
1.3125 0.1925 852.039
1.3475 0.1925 853.318
1.3825 0.1925 854.532
1.4175 0.1925 855.687
1.4525 0.1925 856.786
1.4875 0.1925 857.833
1.5225 0.1925 858.83
1.5575 0.1925 859.781
1.5925 0.1925 860.688
1.6275 0.1925 861.554
1.6625 0.1925 862.381
1.6975 0.1925 863.17
1.7325 0.1925 863.924
1.7675 0.1925 864.643
1.8025 0.1925 865.331
1.8375 0.1925 865.986
1.8725 0.1925 866.612
1.9075 0.1925 867.208
1.9425 0.1925 867.776
1.9775 0.1925 868.316
2.0125 0.1925 868.829
2.0475 0.1925 869.316
2.0825 0.1925 869.776
2.1175 0.1925 870.211
2.1525 0.1925 870.619
2.1875 0.1925 871.001
2.2225 0.1925 871.358
2.2575 0.1925 871.687
2.2925 0.1925 871.99
2.3275 0.1925 872.265
2.3625 0.1925 872.512
2.3975 0.1925 872.729
2.4325 0.1925 872.916
2.4675 0.1925 873.07
2.5025 0.1925 873.19
2.5375 0.1925 873.273
2.5725 0.1925 873.318
2.6075 0.1925 873.32
2.6425 0.1925 873.277
2.6775 0.1925 873.185
2.7125 0.1925 873.038
2.7475 0.1925 872.83
2.7825 0.1925 872.556
2.8175 0.1925 872.206
2.8525 0.1925 871.771
2.8875 0.1925 871.24
2.9225 0.1925 870.599
2.9575 0.1925 869.831
2.9925 0.1925 868.916
3.0275 0.1925 867.829
3.0625 0.1925 866.54
3.0975 0.1925 865.012
3.1325 0.1925 863.198
3.1675 0.1925 861.04
3.2025 0.1925 858.469
3.2375 0.1925 855.395
3.2725 0.1925 851.713
3.3075 0.1925 847.297
3.3425 0.1925 842.006
3.3775 0.1925 835.702
3.4125 0.1925 828.275
3.4475 0.1925 819.709
3.4825 0.1925 810.153
3.5175 0.1925 800
-0.0175 0.2275 400
0.0175 0.2275 445.532
0.0525 0.2275 489.183
0.0875 0.2275 529.553
0.1225 0.2275 565.895
0.1575 0.2275 598.019
0.1925 0.2275 626.105
0.2275 0.2275 650.526
0.2625 0.2275 671.729
0.2975 0.2275 690.161
0.3325 0.2275 706.232
0.3675 0.2275 720.303
0.4025 0.2275 732.679
0.4375 0.2275 743.619
0.4725 0.2275 753.339
0.5075 0.2275 762.016
0.5425 0.2275 769.799
0.5775 0.2275 776.813
0.6125 0.2275 783.161
0.6475 0.2275 788.929
0.6825 0.2275 794.19
0.7175 0.2275 799.007
0.7525 0.2275 803.43
0.7875 0.2275 807.507
0.8225 0.2275 811.274
0.8575 0.2275 814.764
0.8925 0.2275 818.007
0.9275 0.2275 821.027
0.9625 0.2275 823.846
0.9975 0.2275 826.483
1.0325 0.2275 828.954
1.0675 0.2275 831.274
1.1025 0.2275 833.457
1.1375 0.2275 835.513
1.1725 0.2275 837.453
1.2075 0.2275 839.286
1.2425 0.2275 841.021
1.2775 0.2275 842.664
1.3125 0.2275 844.222
1.3475 0.2275 845.701
1.3825 0.2275 847.107
1.4175 0.2275 848.445
1.4525 0.2275 849.718
1.4875 0.2275 850.931
1.5225 0.2275 852.087
1.5575 0.2275 853.19
1.5925 0.2275 854.242
1.6275 0.2275 855.247
1.6625 0.2275 856.206
1.6975 0.2275 857.123
1.7325 0.2275 857.998
1.7675 0.2275 858.834
1.8025 0.2275 859.632
1.8375 0.2275 860.394
1.8725 0.2275 861.122
1.9075 0.2275 861.815
1.9425 0.2275 862.476
1.9775 0.2275 863.105
2.0125 0.2275 863.702
2.0475 0.2275 864.269
2.0825 0.2275 864.805
2.1175 0.2275 865.312
2.1525 0.2275 865.788
2.1875 0.2275 866.235
2.2225 0.2275 866.652
2.2575 0.2275 867.038
2.2925 0.2275 867.393
2.3275 0.2275 867.716
2.3625 0.2275 868.006
2.3975 0.2275 868.263
2.4325 0.2275 868.485
2.4675 0.2275 868.67
2.5025 0.2275 868.815
2.5375 0.2275 868.919
2.5725 0.2275 868.98
2.6075 0.2275 868.992
2.6425 0.2275 868.953
2.6775 0.2275 868.858
2.7125 0.2275 868.702
2.7475 0.2275 868.479
2.7825 0.2275 868.181
2.8175 0.2275 867.799
2.8525 0.2275 867.324
2.8875 0.2275 866.744
2.9225 0.2275 866.043
2.9575 0.2275 865.206
2.9925 0.2275 864.211
3.0275 0.2275 863.035
3.0625 0.2275 861.647
3.0975 0.2275 860.013
3.1325 0.2275 858.089
3.1675 0.2275 855.824
3.2025 0.2275 853.157
3.2375 0.2275 850.017
3.2725 0.2275 846.32
3.3075 0.2275 841.979
3.3425 0.2275 836.904
3.3775 0.2275 831.02
3.4125 0.2275 824.292
3.4475 0.2275 816.758
3.4825 0.2275 808.567
3.5175 0.2275 800
-0.0175 0.2625 400
0.0175 0.2625 439.867
0.0525 0.2625 478.476
0.0875 0.2625 514.815
0.1225 0.2625 548.24
0.1575 0.2625 578.467
0.1925 0.2625 605.488
0.2275 0.2625 629.473
0.2625 0.2625 650.687
0.2975 0.2625 669.431
0.3325 0.2625 686.008
0.3675 0.2625 700.7
0.4025 0.2625 713.76
0.4375 0.2625 725.408
0.4725 0.2625 735.837
0.5075 0.2625 745.21
0.5425 0.2625 753.666
0.5775 0.2625 761.324
0.6125 0.2625 768.285
0.6475 0.2625 774.634
0.6825 0.2625 780.445
0.7175 0.2625 785.78
0.7525 0.2625 790.692
0.7875 0.2625 795.229
0.8225 0.2625 799.43
0.8575 0.2625 803.33
0.8925 0.2625 806.96
0.9275 0.2625 810.345
0.9625 0.2625 813.508
0.9975 0.2625 816.471
1.0325 0.2625 819.25
1.0675 0.2625 821.863
1.1025 0.2625 824.322
1.1375 0.2625 826.641
1.1725 0.2625 828.831
1.2075 0.2625 830.902
1.2425 0.2625 832.862
1.2775 0.2625 834.72
1.3125 0.2625 836.484
1.3475 0.2625 838.158
1.3825 0.2625 839.751
1.4175 0.2625 841.266
1.4525 0.2625 842.71
1.4875 0.2625 844.085
1.5225 0.2625 845.397
1.5575 0.2625 846.649
1.5925 0.2625 847.844
1.6275 0.2625 848.985
1.6625 0.2625 850.075
1.6975 0.2625 851.116
1.7325 0.2625 852.111
1.7675 0.2625 853.062
1.8025 0.2625 853.97
1.8375 0.2625 854.837
1.8725 0.2625 855.665
1.9075 0.2625 856.455
1.9425 0.2625 857.208
1.9775 0.2625 857.924
2.0125 0.2625 858.606
2.0475 0.2625 859.252
2.0825 0.2625 859.865
2.1175 0.2625 860.443
2.1525 0.2625 860.988
2.1875 0.2625 861.499
2.2225 0.2625 861.976
2.2575 0.2625 862.419
2.2925 0.2625 862.827
2.3275 0.2625 863.199
2.3625 0.2625 863.535
2.3975 0.2625 863.833
2.4325 0.2625 864.091
2.4675 0.2625 864.308
2.5025 0.2625 864.482
2.5375 0.2625 864.61
2.5725 0.2625 864.689
2.6075 0.2625 864.715
2.6425 0.2625 864.685
2.6775 0.2625 864.593
2.7125 0.2625 864.435
2.7475 0.2625 864.203
2.7825 0.2625 863.889
2.8175 0.2625 863.486
2.8525 0.2625 862.983
2.8875 0.2625 862.367
2.9225 0.2625 861.624
2.9575 0.2625 860.738
2.9925 0.2625 859.689
3.0275 0.2625 858.452
3.0625 0.2625 857.002
3.0975 0.2625 855.304
3.1325 0.2625 853.322
3.1675 0.2625 851.01
3.2025 0.2625 848.32
3.2375 0.2625 845.194
3.2725 0.2625 841.573
3.3075 0.2625 837.396
3.3425 0.2625 832.611
3.3775 0.2625 827.183
3.4125 0.2625 821.115
3.4475 0.2625 814.464
3.4825 0.2625 807.358
3.5175 0.2625 800
-0.0175 0.2975 400
0.0175 0.2975 435.461
0.0525 0.2975 470.04
0.0875 0.2975 502.99
0.1225 0.2975 533.783
0.1575 0.2975 562.121
0.1925 0.2975 587.908
0.2275 0.2975 611.191
0.2625 0.2975 632.114
0.2975 0.2975 650.869
0.3325 0.2975 667.67
0.3675 0.2975 682.73
0.4025 0.2975 696.251
0.4375 0.2975 708.417
0.4725 0.2975 719.391
0.5075 0.2975 729.321
0.5425 0.2975 738.331
0.5775 0.2975 746.533
0.6125 0.2975 754.021
0.6475 0.2975 760.878
0.6825 0.2975 767.175
0.7175 0.2975 772.975
0.7525 0.2975 778.33
0.7875 0.2975 783.287
0.8225 0.2975 787.888
0.8575 0.2975 792.168
0.8925 0.2975 796.157
0.9275 0.2975 799.883
0.9625 0.2975 803.371
0.9975 0.2975 806.642
1.0325 0.2975 809.714
1.0675 0.2975 812.604
1.1025 0.2975 815.328
1.1375 0.2975 817.899
1.1725 0.2975 820.329
1.2075 0.2975 822.628
1.2425 0.2975 824.806
1.2775 0.2975 826.872
1.3125 0.2975 828.834
1.3475 0.2975 830.698
1.3825 0.2975 832.472
1.4175 0.2975 834.16
1.4525 0.2975 835.769
1.4875 0.2975 837.304
1.5225 0.2975 838.767
1.5575 0.2975 840.165
1.5925 0.2975 841.499
1.6275 0.2975 842.774
1.6625 0.2975 843.992
1.6975 0.2975 845.156
1.7325 0.2975 846.269
1.7675 0.2975 847.332
1.8025 0.2975 848.349
1.8375 0.2975 849.32
1.8725 0.2975 850.247
1.9075 0.2975 851.132
1.9425 0.2975 851.976
1.9775 0.2975 852.779
2.0125 0.2975 853.544
2.0475 0.2975 854.27
2.0825 0.2975 854.958
2.1175 0.2975 855.608
2.1525 0.2975 856.221
2.1875 0.2975 856.797
2.2225 0.2975 857.335
2.2575 0.2975 857.835
2.2925 0.2975 858.296
2.3275 0.2975 858.719
2.3625 0.2975 859.101
2.3975 0.2975 859.441
2.4325 0.2975 859.738
2.4675 0.2975 859.99
2.5025 0.2975 860.195
2.5375 0.2975 860.35
2.5725 0.2975 860.451
2.6075 0.2975 860.495
2.6425 0.2975 860.478
2.6775 0.2975 860.395
2.7125 0.2975 860.24
2.7475 0.2975 860.007
2.7825 0.2975 859.688
2.8175 0.2975 859.273
2.8525 0.2975 858.754
2.8875 0.2975 858.117
2.9225 0.2975 857.349
2.9575 0.2975 856.434
2.9925 0.2975 855.353
3.0275 0.2975 854.084
3.0625 0.2975 852.603
3.0975 0.2975 850.88
3.1325 0.2975 848.883
3.1675 0.2975 846.576
3.2025 0.2975 843.918
3.2375 0.2975 840.867
3.2725 0.2975 837.381
3.3075 0.2975 833.421
3.3425 0.2975 828.959
3.3775 0.2975 823.986
3.4125 0.2975 818.521
3.4475 0.2975 812.624
3.4825 0.2975 806.4
3.5175 0.2975 800
-0.0175 0.3325 400
0.0175 0.3325 431.938
0.0525 0.3325 463.233
0.0875 0.3325 493.323
0.1225 0.3325 521.78
0.1575 0.3325 548.327
0.1925 0.3325 572.83
0.2275 0.3325 595.27
0.2625 0.3325 615.708
0.2975 0.3325 634.261
0.3325 0.3325 651.073
0.3675 0.3325 666.3
0.4025 0.3325 680.097
0.4375 0.3325 692.615
0.4725 0.3325 703.991
0.5075 0.3325 714.351
0.5425 0.3325 723.805
0.5775 0.3325 732.455
0.6125 0.3325 740.388
0.6475 0.3325 747.682
0.6825 0.3325 754.404
0.7175 0.3325 760.614
0.7525 0.3325 766.365
0.7875 0.3325 771.703
0.8225 0.3325 776.667
0.8575 0.3325 781.295
0.8925 0.3325 785.617
0.9275 0.3325 789.66
0.9625 0.3325 793.451
0.9975 0.3325 797.011
1.0325 0.3325 800.359
1.0675 0.3325 803.513
1.1025 0.3325 806.488
1.1375 0.3325 809.298
1.1725 0.3325 811.957
1.2075 0.3325 814.475
1.2425 0.3325 816.862
1.2775 0.3325 819.128
1.3125 0.3325 821.281
1.3475 0.3325 823.328
1.3825 0.3325 825.277
1.4175 0.3325 827.134
1.4525 0.3325 828.904
1.4875 0.3325 830.593
1.5225 0.3325 832.204
1.5575 0.3325 833.743
1.5925 0.3325 835.214
1.6275 0.3325 836.619
1.6625 0.3325 837.963
1.6975 0.3325 839.247
1.7325 0.3325 840.476
1.7675 0.3325 841.65
1.8025 0.3325 842.773
1.8375 0.3325 843.846
1.8725 0.3325 844.871
1.9075 0.3325 845.85
1.9425 0.3325 846.784
1.9775 0.3325 847.674
2.0125 0.3325 848.52
2.0475 0.3325 849.325
2.0825 0.3325 850.088
2.1175 0.3325 850.81
2.1525 0.3325 851.492
2.1875 0.3325 852.132
2.2225 0.3325 852.731
2.2575 0.3325 853.289
2.2925 0.3325 853.806
2.3275 0.3325 854.279
2.3625 0.3325 854.709
2.3975 0.3325 855.093
2.4325 0.3325 855.431
2.4675 0.3325 855.72
2.5025 0.3325 855.958
2.5375 0.3325 856.142
2.5725 0.3325 856.269
2.6075 0.3325 856.336
2.6425 0.3325 856.337
2.6775 0.3325 856.269
2.7125 0.3325 856.124
2.7475 0.3325 855.898
2.7825 0.3325 855.581
2.8175 0.3325 855.166
2.8525 0.3325 854.642
2.8875 0.3325 853.998
2.9225 0.3325 853.221
2.9575 0.3325 852.296
2.9925 0.3325 851.205
3.0275 0.3325 849.928
3.0625 0.3325 848.445
3.0975 0.3325 846.73
3.1325 0.3325 844.755
3.1675 0.3325 842.492
3.2025 0.3325 839.909
3.2375 0.3325 836.975
3.2725 0.3325 833.663
3.3075 0.3325 829.948
3.3425 0.3325 825.82
3.3775 0.3325 821.281
3.4125 0.3325 816.359
3.4475 0.3325 811.11
3.4825 0.3325 805.619
3.5175 0.3325 800
-0.0175 0.3675 400
0.0175 0.3675 429.056
0.0525 0.3675 457.63
0.0875 0.3675 485.29
0.1225 0.3675 511.687
0.1575 0.3675 536.577
0.1925 0.3675 559.817
0.2275 0.3675 581.349
0.2625 0.3675 601.188
0.2975 0.3675 619.394
0.3325 0.3675 636.06
0.3675 0.3675 651.298
0.4025 0.3675 665.224
0.4375 0.3675 677.956
0.4725 0.3675 689.608
0.5075 0.3675 700.285
0.5425 0.3675 710.084
0.5775 0.3675 719.094
0.6125 0.3675 727.395
0.6475 0.3675 735.057
0.6825 0.3675 742.144
0.7175 0.3675 748.713
0.7525 0.3675 754.814
0.7875 0.3675 760.491
0.8225 0.3675 765.784
0.8575 0.3675 770.728
0.8925 0.3675 775.354
0.9275 0.3675 779.691
0.9625 0.3675 783.763
0.9975 0.3675 787.592
1.0325 0.3675 791.198
1.0675 0.3675 794.599
1.1025 0.3675 797.812
1.1375 0.3675 800.849
1.1725 0.3675 803.726
1.2075 0.3675 806.452
1.2425 0.3675 809.039
1.2775 0.3675 811.497
1.3125 0.3675 813.834
1.3475 0.3675 816.057
1.3825 0.3675 818.175
1.4175 0.3675 820.194
1.4525 0.3675 822.12
1.4875 0.3675 823.958
1.5225 0.3675 825.714
1.5575 0.3675 827.391
1.5925 0.3675 828.994
1.6275 0.3675 830.526
1.6625 0.3675 831.992
1.6975 0.3675 833.395
1.7325 0.3675 834.736
1.7675 0.3675 836.019
1.8025 0.3675 837.247
1.8375 0.3675 838.42
1.8725 0.3675 839.542
1.9075 0.3675 840.613
1.9425 0.3675 841.636
1.9775 0.3675 842.611
2.0125 0.3675 843.539
2.0475 0.3675 844.422
2.0825 0.3675 845.26
2.1175 0.3675 846.054
2.1525 0.3675 846.803
2.1875 0.3675 847.508
2.2225 0.3675 848.169
2.2575 0.3675 848.786
2.2925 0.3675 849.357
2.3275 0.3675 849.883
2.3625 0.3675 850.362
2.3975 0.3675 850.792
2.4325 0.3675 851.172
2.4675 0.3675 851.501
2.5025 0.3675 851.775
2.5375 0.3675 851.992
2.5725 0.3675 852.149
2.6075 0.3675 852.242
2.6425 0.3675 852.267
2.6775 0.3675 852.218
2.7125 0.3675 852.091
2.7475 0.3675 851.878
2.7825 0.3675 851.573
2.8175 0.3675 851.167
2.8525 0.3675 850.651
2.8875 0.3675 850.013
2.9225 0.3675 849.242
2.9575 0.3675 848.323
2.9925 0.3675 847.242
3.0275 0.3675 845.98
3.0625 0.3675 844.519
3.0975 0.3675 842.839
3.1325 0.3675 840.916
3.1675 0.3675 838.727
3.2025 0.3675 836.25
3.2375 0.3675 833.463
3.2725 0.3675 830.347
3.3075 0.3675 826.89
3.3425 0.3675 823.09
3.3775 0.3675 818.959
3.4125 0.3675 814.525
3.4475 0.3675 809.838
3.4825 0.3675 804.967
3.5175 0.3675 800
-0.0175 0.4025 400
0.0175 0.4025 426.657
0.0525 0.4025 452.942
0.0875 0.4025 478.518
0.1225 0.4025 503.101
0.1575 0.4025 526.478
0.1925 0.4025 548.51
0.2275 0.4025 569.123
0.2625 0.4025 588.3
0.2975 0.4025 606.066
0.3325 0.4025 622.477
0.3675 0.4025 637.607
0.4025 0.4025 651.544
0.4375 0.4025 664.378
0.4725 0.4025 676.2
0.5075 0.4025 687.097
0.5425 0.4025 697.152
0.5775 0.4025 706.443
0.6125 0.4025 715.039
0.6475 0.4025 723.006
0.6825 0.4025 730.402
0.7175 0.4025 737.28
0.7525 0.4025 743.686
0.7875 0.4025 749.663
0.8225 0.4025 755.249
0.8575 0.4025 760.478
0.8925 0.4025 765.382
0.9275 0.4025 769.986
0.9625 0.4025 774.317
0.9975 0.4025 778.396
1.0325 0.4025 782.242
1.0675 0.4025 785.875
1.1025 0.4025 789.31
1.1375 0.4025 792.562
1.1725 0.4025 795.644
1.2075 0.4025 798.569
1.2425 0.4025 801.346
1.2775 0.4025 803.987
1.3125 0.4025 806.499
1.3475 0.4025 808.892
1.3825 0.4025 811.173
1.4175 0.4025 813.348
1.4525 0.4025 815.424
1.4875 0.4025 817.407
1.5225 0.4025 819.301
1.5575 0.4025 821.112
1.5925 0.4025 822.844
1.6275 0.4025 824.501
1.6625 0.4025 826.086
1.6975 0.4025 827.603
1.7325 0.4025 829.055
1.7675 0.4025 830.445
1.8025 0.4025 831.774
1.8375 0.4025 833.046
1.8725 0.4025 834.263
1.9075 0.4025 835.425
1.9425 0.4025 836.535
1.9775 0.4025 837.594
2.0125 0.4025 838.604
2.0475 0.4025 839.564
2.0825 0.4025 840.476
2.1175 0.4025 841.341
2.1525 0.4025 842.158
2.1875 0.4025 842.929
2.2225 0.4025 843.652
2.2575 0.4025 844.327
2.2925 0.4025 844.955
2.3275 0.4025 845.534
2.3625 0.4025 846.063
2.3975 0.4025 846.541
2.4325 0.4025 846.966
2.4675 0.4025 847.336
2.5025 0.4025 847.649
2.5375 0.4025 847.902
2.5725 0.4025 848.092
2.6075 0.4025 848.216
2.6425 0.4025 848.269
2.6775 0.4025 848.246
2.7125 0.4025 848.143
2.7475 0.4025 847.952
2.7825 0.4025 847.666
2.8175 0.4025 847.279
2.8525 0.4025 846.781
2.8875 0.4025 846.161
2.9225 0.4025 845.409
2.9575 0.4025 844.513
2.9925 0.4025 843.459
3.0275 0.4025 842.231
3.0625 0.4025 840.814
3.0975 0.4025 839.19
3.1325 0.4025 837.342
3.1675 0.4025 835.251
3.2025 0.4025 832.902
3.2375 0.4025 830.279
3.2725 0.4025 827.371
3.3075 0.4025 824.174
3.3425 0.4025 820.692
3.3775 0.4025 816.939
3.4125 0.4025 812.944
3.4475 0.4025 808.749
3.4825 0.4025 804.412
3.5175 0.4025 800
-0.0175 0.4375 400
0.0175 0.4375 424.628
0.0525 0.4375 448.965
0.0875 0.4375 472.74
0.1225 0.4375 495.721
0.1575 0.4375 517.725
0.1925 0.4375 538.622
0.2275 0.4375 558.333
0.2625 0.4375 576.823
0.2975 0.4375 594.094
0.3325 0.4375 610.173
0.3675 0.4375 625.111
0.4025 0.4375 638.968
0.4375 0.4375 651.812
0.4725 0.4375 663.716
0.5075 0.4375 674.75
0.5425 0.4375 684.985
0.5775 0.4375 694.485
0.6125 0.4375 703.314
0.6475 0.4375 711.527
0.6825 0.4375 719.18
0.7175 0.4375 726.318
0.7525 0.4375 732.987
0.7875 0.4375 739.226
0.8225 0.4375 745.071
0.8575 0.4375 750.555
0.8925 0.4375 755.708
0.9275 0.4375 760.556
0.9625 0.4375 765.123
0.9975 0.4375 769.431
1.0325 0.4375 773.5
1.0675 0.4375 777.348
1.1025 0.4375 780.992
1.1375 0.4375 784.444
1.1725 0.4375 787.721
1.2075 0.4375 790.832
1.2425 0.4375 793.79
1.2775 0.4375 796.604
1.3125 0.4375 799.285
1.3475 0.4375 801.839
1.3825 0.4375 804.275
1.4175 0.4375 806.601
1.4525 0.4375 808.821
1.4875 0.4375 810.943
1.5225 0.4375 812.972
1.5575 0.4375 814.913
1.5925 0.4375 816.769
1.6275 0.4375 818.546
1.6625 0.4375 820.248
1.6975 0.4375 821.877
1.7325 0.4375 823.436
1.7675 0.4375 824.93
1.8025 0.4375 826.36
1.8375 0.4375 827.728
1.8725 0.4375 829.037
1.9075 0.4375 830.289
1.9425 0.4375 831.486
1.9775 0.4375 832.628